{"interfaceLanguages":{"swift":[{"children":[{"title":"Classes","type":"groupMarker"},{"children":[{"title":"Initializers","type":"groupMarker"},{"path":"\/documentation\/mm4\/mm4forcefield\/init(descriptor:)","title":"init(descriptor: MM4ForceFieldDescriptor) throws","type":"init"},{"title":"Instance Properties","type":"groupMarker"},{"path":"\/documentation\/mm4\/mm4forcefield\/energy","title":"var energy: MM4ForceFieldEnergy","type":"property"},{"path":"\/documentation\/mm4\/mm4forcefield\/externalforces","title":"var externalForces: [SIMD3<Float>]","type":"property"},{"path":"\/documentation\/mm4\/mm4forcefield\/forces","title":"var forces: [SIMD3<Float>]","type":"property"},{"path":"\/documentation\/mm4\/mm4forcefield\/positions","title":"var positions: [SIMD3<Float>]","type":"property"},{"path":"\/documentation\/mm4\/mm4forcefield\/timestep","title":"var timeStep: Double","type":"property"},{"path":"\/documentation\/mm4\/mm4forcefield\/velocities","title":"var velocities: [SIMD3<Float>]","type":"property"},{"title":"Instance Methods","type":"groupMarker"},{"path":"\/documentation\/mm4\/mm4forcefield\/minimize(tolerance:maxiterations:)","title":"func minimize(tolerance: Double, maxIterations: Int)","type":"method"},{"path":"\/documentation\/mm4\/mm4forcefield\/simulate(time:)","title":"func simulate(time: Double)","type":"method"},{"path":"\/documentation\/mm4\/mm4forcefield\/state(descriptor:)","title":"func state(descriptor: MM4StateDescriptor) -> MM4State","type":"method"}],"path":"\/documentation\/mm4\/mm4forcefield","title":"MM4ForceField","type":"class"},{"title":"Structures","type":"groupMarker"},{"children":[{"title":"Instance Properties","type":"groupMarker"},{"path":"\/documentation\/mm4\/mm4address\/atomicnumber","title":"var atomicNumber: UInt8","type":"property"},{"path":"\/documentation\/mm4\/mm4address\/index","title":"var index: UInt32","type":"property"}],"path":"\/documentation\/mm4\/mm4address","title":"MM4Address","type":"struct"},{"children":[{"title":"Instance Properties","type":"groupMarker"},{"path":"\/documentation\/mm4\/mm4angleparameters\/bendingstiffness","title":"var bendingStiffness: Float","type":"property"},{"path":"\/documentation\/mm4\/mm4angleparameters\/equilibriumangle","title":"var equilibriumAngle: Float","type":"property"},{"path":"\/documentation\/mm4\/mm4angleparameters\/stretchbendstiffness","title":"var stretchBendStiffness: Float","type":"property"}],"path":"\/documentation\/mm4\/mm4angleparameters","title":"MM4AngleParameters","type":"struct"},{"children":[{"title":"Instance Properties","type":"groupMarker"},{"path":"\/documentation\/mm4\/mm4angles\/indices","title":"var indices: [SIMD3<UInt32>]","type":"property"},{"path":"\/documentation\/mm4\/mm4angles\/map","title":"var map: [SIMD3<UInt32> : UInt32]","type":"property"},{"path":"\/documentation\/mm4\/mm4angles\/parameters","title":"var parameters: [MM4AngleParameters]","type":"property"},{"path":"\/documentation\/mm4\/mm4angles\/ringtypes","title":"var ringTypes: [UInt8]","type":"property"}],"path":"\/documentation\/mm4\/mm4angles","title":"MM4Angles","type":"struct"},{"children":[{"title":"Instance Properties","type":"groupMarker"},{"path":"\/documentation\/mm4\/mm4atomparameters\/charge","title":"var charge: Float","type":"property"},{"path":"\/documentation\/mm4\/mm4atomparameters\/dispersionfactor","title":"var dispersionFactor: Float","type":"property"},{"path":"\/documentation\/mm4\/mm4atomparameters\/epsilon","title":"var epsilon: (default: Float, hydrogen: Float)","type":"property"},{"path":"\/documentation\/mm4\/mm4atomparameters\/hydrogenreductionfactor","title":"var hydrogenReductionFactor: Float","type":"property"},{"path":"\/documentation\/mm4\/mm4atomparameters\/radius","title":"var radius: (default: Float, hydrogen: Float)","type":"property"}],"path":"\/documentation\/mm4\/mm4atomparameters","title":"MM4AtomParameters","type":"struct"},{"children":[{"title":"Instance Properties","type":"groupMarker"},{"path":"\/documentation\/mm4\/mm4atoms\/atomicnumbers","title":"var atomicNumbers: [UInt8]","type":"property"},{"path":"\/documentation\/mm4\/mm4atoms\/centertypes","title":"var centerTypes: [MM4CenterType?]","type":"property"},{"path":"\/documentation\/mm4\/mm4atoms\/codes","title":"var codes: [MM4AtomCode]","type":"property"},{"path":"\/documentation\/mm4\/mm4atoms\/count","title":"var count: Int","type":"property"},{"path":"\/documentation\/mm4\/mm4atoms\/indices","title":"var indices: Range<Int>","type":"property"},{"path":"\/documentation\/mm4\/mm4atoms\/masses","title":"var masses: [Float]","type":"property"},{"path":"\/documentation\/mm4\/mm4atoms\/parameters","title":"var parameters: [MM4AtomParameters]","type":"property"},{"path":"\/documentation\/mm4\/mm4atoms\/ringtypes","title":"var ringTypes: [UInt8]","type":"property"}],"path":"\/documentation\/mm4\/mm4atoms","title":"MM4Atoms","type":"struct"},{"children":[{"title":"Instance Properties","type":"groupMarker"},{"path":"\/documentation\/mm4\/mm4bondextendedparameters\/dipolemoment","title":"var dipoleMoment: Float","type":"property"}],"path":"\/documentation\/mm4\/mm4bondextendedparameters","title":"MM4BondExtendedParameters","type":"struct"},{"children":[{"title":"Instance Properties","type":"groupMarker"},{"path":"\/documentation\/mm4\/mm4bondparameters\/equilibriumlength","title":"var equilibriumLength: Float","type":"property"},{"path":"\/documentation\/mm4\/mm4bondparameters\/potentialwelldepth","title":"var potentialWellDepth: Float","type":"property"},{"path":"\/documentation\/mm4\/mm4bondparameters\/stretchingstiffness","title":"var stretchingStiffness: Float","type":"property"}],"path":"\/documentation\/mm4\/mm4bondparameters","title":"MM4BondParameters","type":"struct"},{"children":[{"title":"Instance Properties","type":"groupMarker"},{"path":"\/documentation\/mm4\/mm4bonds\/extendedparameters","title":"var extendedParameters: [MM4BondExtendedParameters?]","type":"property"},{"path":"\/documentation\/mm4\/mm4bonds\/indices","title":"var indices: [SIMD2<UInt32>]","type":"property"},{"path":"\/documentation\/mm4\/mm4bonds\/map","title":"var map: [SIMD2<UInt32> : UInt32]","type":"property"},{"path":"\/documentation\/mm4\/mm4bonds\/parameters","title":"var parameters: [MM4BondParameters]","type":"property"},{"path":"\/documentation\/mm4\/mm4bonds\/ringtypes","title":"var ringTypes: [UInt8]","type":"property"}],"path":"\/documentation\/mm4\/mm4bonds","title":"MM4Bonds","type":"struct"},{"children":[{"title":"Initializers","type":"groupMarker"},{"path":"\/documentation\/mm4\/mm4forcefielddescriptor\/init()","title":"init()","type":"init"},{"title":"Instance Properties","type":"groupMarker"},{"path":"\/documentation\/mm4\/mm4forcefielddescriptor\/cutoffdistance","title":"var cutoffDistance: Float?","type":"property"},{"path":"\/documentation\/mm4\/mm4forcefielddescriptor\/dielectricconstant","title":"var dielectricConstant: Float","type":"property"},{"path":"\/documentation\/mm4\/mm4forcefielddescriptor\/integrator","title":"var integrator: MM4IntegratorOptions","type":"property"},{"path":"\/documentation\/mm4\/mm4forcefielddescriptor\/parameters","title":"var parameters: MM4Parameters?","type":"property"},{"path":"\/documentation\/mm4\/mm4forcefielddescriptor\/platform","title":"var platform: OpenMM_Platform?","type":"property"}],"path":"\/documentation\/mm4\/mm4forcefielddescriptor","title":"MM4ForceFieldDescriptor","type":"struct"},{"children":[{"title":"Instance Properties","type":"groupMarker"},{"path":"\/documentation\/mm4\/mm4forcefieldenergy\/kinetic","title":"var kinetic: Double","type":"property"},{"path":"\/documentation\/mm4\/mm4forcefieldenergy\/potential","title":"var potential: Double","type":"property"}],"path":"\/documentation\/mm4\/mm4forcefieldenergy","title":"MM4ForceFieldEnergy","type":"struct"},{"children":[{"title":"Initializers","type":"groupMarker"},{"path":"\/documentation\/mm4\/mm4forceoptions\/init(rawvalue:)","title":"init(rawValue: UInt32)","type":"init"},{"title":"Instance Properties","type":"groupMarker"},{"path":"\/documentation\/mm4\/mm4forceoptions\/rawvalue","title":"let rawValue: UInt32","type":"property"},{"title":"Type Properties","type":"groupMarker"},{"path":"\/documentation\/mm4\/mm4forceoptions\/bend","title":"static let bend: MM4ForceOptions","type":"property"},{"path":"\/documentation\/mm4\/mm4forceoptions\/nonbonded","title":"static let nonbonded: MM4ForceOptions","type":"property"},{"path":"\/documentation\/mm4\/mm4forceoptions\/stretch","title":"static let stretch: MM4ForceOptions","type":"property"},{"path":"\/documentation\/mm4\/mm4forceoptions\/stretchbend","title":"static let stretchBend: MM4ForceOptions","type":"property"},{"title":"Default Implementations","type":"groupMarker"},{"children":[{"title":"Operators","type":"groupMarker"},{"path":"\/documentation\/mm4\/mm4forceoptions\/!=(_:_:)","title":"static func != (Self, Self) -> Bool","type":"op"}],"path":"\/documentation\/mm4\/mm4forceoptions\/equatable-implementations","title":"Equatable Implementations","type":"symbol"},{"children":[{"title":"Initializers","type":"groupMarker"},{"path":"\/documentation\/mm4\/mm4forceoptions\/init()","title":"init()","type":"init"},{"title":"Instance Methods","type":"groupMarker"},{"path":"\/documentation\/mm4\/mm4forceoptions\/contains(_:)","title":"func contains(Self) -> Bool","type":"method"},{"path":"\/documentation\/mm4\/mm4forceoptions\/formintersection(_:)","title":"func formIntersection(Self)","type":"method"},{"path":"\/documentation\/mm4\/mm4forceoptions\/formsymmetricdifference(_:)","title":"func formSymmetricDifference(Self)","type":"method"},{"path":"\/documentation\/mm4\/mm4forceoptions\/formunion(_:)","title":"func formUnion(Self)","type":"method"},{"path":"\/documentation\/mm4\/mm4forceoptions\/insert(_:)","title":"func insert(Self.Element) -> (inserted: Bool, memberAfterInsert: Self.Element)","type":"method"},{"path":"\/documentation\/mm4\/mm4forceoptions\/intersection(_:)","title":"func intersection(Self) -> Self","type":"method"},{"path":"\/documentation\/mm4\/mm4forceoptions\/remove(_:)","title":"func remove(Self.Element) -> Self.Element?","type":"method"},{"path":"\/documentation\/mm4\/mm4forceoptions\/symmetricdifference(_:)","title":"func symmetricDifference(Self) -> Self","type":"method"},{"path":"\/documentation\/mm4\/mm4forceoptions\/union(_:)","title":"func union(Self) -> Self","type":"method"},{"path":"\/documentation\/mm4\/mm4forceoptions\/update(with:)","title":"func update(with: Self.Element) -> Self.Element?","type":"method"}],"path":"\/documentation\/mm4\/mm4forceoptions\/optionset-implementations","title":"OptionSet Implementations","type":"symbol"},{"children":[{"title":"Initializers","type":"groupMarker"},{"path":"\/documentation\/mm4\/mm4forceoptions\/init(_:)","title":"init<S>(S)","type":"init"},{"path":"\/documentation\/mm4\/mm4forceoptions\/init(arrayliteral:)","title":"init(arrayLiteral: Self.Element...)","type":"init"},{"title":"Instance Properties","type":"groupMarker"},{"path":"\/documentation\/mm4\/mm4forceoptions\/isempty","title":"var isEmpty: Bool","type":"property"},{"title":"Instance Methods","type":"groupMarker"},{"path":"\/documentation\/mm4\/mm4forceoptions\/isdisjoint(with:)","title":"func isDisjoint(with: Self) -> Bool","type":"method"},{"path":"\/documentation\/mm4\/mm4forceoptions\/isstrictsubset(of:)","title":"func isStrictSubset(of: Self) -> Bool","type":"method"},{"path":"\/documentation\/mm4\/mm4forceoptions\/isstrictsuperset(of:)","title":"func isStrictSuperset(of: Self) -> Bool","type":"method"},{"path":"\/documentation\/mm4\/mm4forceoptions\/issubset(of:)","title":"func isSubset(of: Self) -> Bool","type":"method"},{"path":"\/documentation\/mm4\/mm4forceoptions\/issuperset(of:)","title":"func isSuperset(of: Self) -> Bool","type":"method"},{"path":"\/documentation\/mm4\/mm4forceoptions\/subtract(_:)","title":"func subtract(Self)","type":"method"},{"path":"\/documentation\/mm4\/mm4forceoptions\/subtracting(_:)","title":"func subtracting(Self) -> Self","type":"method"}],"path":"\/documentation\/mm4\/mm4forceoptions\/setalgebra-implementations","title":"SetAlgebra Implementations","type":"symbol"}],"path":"\/documentation\/mm4\/mm4forceoptions","title":"MM4ForceOptions","type":"struct"},{"children":[{"title":"Initializers","type":"groupMarker"},{"path":"\/documentation\/mm4\/mm4parameters\/init(descriptor:)","title":"init(descriptor: MM4ParametersDescriptor) throws","type":"init"},{"title":"Instance Properties","type":"groupMarker"},{"path":"\/documentation\/mm4\/mm4parameters\/angles","title":"var angles: MM4Angles","type":"property"},{"path":"\/documentation\/mm4\/mm4parameters\/atoms","title":"var atoms: MM4Atoms","type":"property"},{"path":"\/documentation\/mm4\/mm4parameters\/bonds","title":"var bonds: MM4Bonds","type":"property"},{"path":"\/documentation\/mm4\/mm4parameters\/nonbondedexceptions13","title":"var nonbondedExceptions13: [SIMD2<UInt32>]","type":"property"},{"path":"\/documentation\/mm4\/mm4parameters\/rings","title":"var rings: MM4Rings","type":"property"},{"title":"Instance Methods","type":"groupMarker"},{"path":"\/documentation\/mm4\/mm4parameters\/append(contentsof:)","title":"func append(contentsOf: MM4Parameters)","type":"method"},{"title":"Type Methods","type":"groupMarker"},{"path":"\/documentation\/mm4\/mm4parameters\/mass(atomicnumber:)","title":"static func mass(atomicNumber: UInt8) -> Float","type":"method"}],"path":"\/documentation\/mm4\/mm4parameters","title":"MM4Parameters","type":"struct"},{"children":[{"title":"Initializers","type":"groupMarker"},{"path":"\/documentation\/mm4\/mm4parametersdescriptor\/init()","title":"init()","type":"init"},{"title":"Instance Properties","type":"groupMarker"},{"path":"\/documentation\/mm4\/mm4parametersdescriptor\/atomicnumbers","title":"var atomicNumbers: [UInt8]?","type":"property"},{"path":"\/documentation\/mm4\/mm4parametersdescriptor\/bonds","title":"var bonds: [SIMD2<UInt32>]?","type":"property"},{"path":"\/documentation\/mm4\/mm4parametersdescriptor\/forces","title":"var forces: MM4ForceOptions","type":"property"},{"path":"\/documentation\/mm4\/mm4parametersdescriptor\/hydrogenmassscale","title":"var hydrogenMassScale: Float","type":"property"}],"path":"\/documentation\/mm4\/mm4parametersdescriptor","title":"MM4ParametersDescriptor","type":"struct"},{"children":[{"title":"Initializers","type":"groupMarker"},{"path":"\/documentation\/mm4\/mm4rigidbody\/init(descriptor:)","title":"init(descriptor: MM4RigidBodyDescriptor) throws","type":"init"},{"title":"Instance Properties","type":"groupMarker"},{"path":"\/documentation\/mm4\/mm4rigidbody\/angularmomentum","title":"var angularMomentum: SIMD3<Double>","type":"property"},{"path":"\/documentation\/mm4\/mm4rigidbody\/centerofmass","title":"var centerOfMass: SIMD3<Double>","type":"property"},{"path":"\/documentation\/mm4\/mm4rigidbody\/forces","title":"var forces: [SIMD3<Float>]?","type":"property"},{"path":"\/documentation\/mm4\/mm4rigidbody\/linearmomentum","title":"var linearMomentum: SIMD3<Double>","type":"property"},{"path":"\/documentation\/mm4\/mm4rigidbody\/mass","title":"var mass: Double","type":"property"},{"path":"\/documentation\/mm4\/mm4rigidbody\/masses","title":"let masses: [Float]","type":"property"},{"path":"\/documentation\/mm4\/mm4rigidbody\/momentofinertia","title":"var momentOfInertia: SIMD3<Double>","type":"property"},{"path":"\/documentation\/mm4\/mm4rigidbody\/netforce","title":"var netForce: SIMD3<Double>?","type":"property"},{"path":"\/documentation\/mm4\/mm4rigidbody\/nettorque","title":"var netTorque: SIMD3<Double>?","type":"property"},{"path":"\/documentation\/mm4\/mm4rigidbody\/positions","title":"var positions: [SIMD3<Float>]","type":"property"},{"path":"\/documentation\/mm4\/mm4rigidbody\/principalaxes","title":"var principalAxes: (SIMD3<Double>, SIMD3<Double>, SIMD3<Double>)","type":"property"},{"path":"\/documentation\/mm4\/mm4rigidbody\/velocities","title":"var velocities: [SIMD3<Float>]","type":"property"},{"title":"Instance Methods","type":"groupMarker"},{"path":"\/documentation\/mm4\/mm4rigidbody\/rotate(quaternion:)","title":"func rotate(quaternion: Quaternion<Double>)","type":"method"}],"path":"\/documentation\/mm4\/mm4rigidbody","title":"MM4RigidBody","type":"struct"},{"children":[{"title":"Initializers","type":"groupMarker"},{"path":"\/documentation\/mm4\/mm4rigidbodydescriptor\/init()","title":"init()","type":"init"},{"title":"Instance Properties","type":"groupMarker"},{"path":"\/documentation\/mm4\/mm4rigidbodydescriptor\/masses","title":"var masses: [Float]?","type":"property"},{"path":"\/documentation\/mm4\/mm4rigidbodydescriptor\/positions","title":"var positions: [SIMD3<Float>]?","type":"property"},{"path":"\/documentation\/mm4\/mm4rigidbodydescriptor\/velocities","title":"var velocities: [SIMD3<Float>]?","type":"property"}],"path":"\/documentation\/mm4\/mm4rigidbodydescriptor","title":"MM4RigidBodyDescriptor","type":"struct"},{"children":[{"title":"Instance Properties","type":"groupMarker"},{"path":"\/documentation\/mm4\/mm4rings\/indices","title":"var indices: [SIMD8<UInt32>]","type":"property"},{"path":"\/documentation\/mm4\/mm4rings\/map","title":"var map: [SIMD8<UInt32> : UInt32]","type":"property"},{"path":"\/documentation\/mm4\/mm4rings\/ringtypes","title":"var ringTypes: [UInt8]","type":"property"}],"path":"\/documentation\/mm4\/mm4rings","title":"MM4Rings","type":"struct"},{"children":[{"title":"Instance Properties","type":"groupMarker"},{"path":"\/documentation\/mm4\/mm4state\/forces","title":"var forces: [SIMD3<Float>]?","type":"property"},{"path":"\/documentation\/mm4\/mm4state\/kineticenergy","title":"var kineticEnergy: Double?","type":"property"},{"path":"\/documentation\/mm4\/mm4state\/positions","title":"var positions: [SIMD3<Float>]?","type":"property"},{"path":"\/documentation\/mm4\/mm4state\/potentialenergy","title":"var potentialEnergy: Double?","type":"property"},{"path":"\/documentation\/mm4\/mm4state\/velocities","title":"var velocities: [SIMD3<Float>]?","type":"property"}],"path":"\/documentation\/mm4\/mm4state","title":"MM4State","type":"struct"},{"children":[{"title":"Initializers","type":"groupMarker"},{"path":"\/documentation\/mm4\/mm4statedescriptor\/init()","title":"init()","type":"init"},{"title":"Instance Properties","type":"groupMarker"},{"path":"\/documentation\/mm4\/mm4statedescriptor\/energy","title":"var energy: Bool","type":"property"},{"path":"\/documentation\/mm4\/mm4statedescriptor\/forces","title":"var forces: Bool","type":"property"},{"path":"\/documentation\/mm4\/mm4statedescriptor\/positions","title":"var positions: Bool","type":"property"},{"path":"\/documentation\/mm4\/mm4statedescriptor\/velocities","title":"var velocities: Bool","type":"property"}],"path":"\/documentation\/mm4\/mm4statedescriptor","title":"MM4StateDescriptor","type":"struct"},{"title":"Variables","type":"groupMarker"},{"path":"\/documentation\/mm4\/mm4ajperkjpermol","title":"let MM4AJPerKJPerMol: Double","type":"var"},{"path":"\/documentation\/mm4\/mm4ajperzj","title":"let MM4AJPerZJ: Double","type":"var"},{"path":"\/documentation\/mm4\/mm4amuperyg","title":"let MM4AmuPerYg: Double","type":"var"},{"path":"\/documentation\/mm4\/mm4debyepereangstrom","title":"let MM4DebyePerEAngstrom: Double","type":"var"},{"path":"\/documentation\/mm4\/mm4eangstromperdebye","title":"let MM4EAngstromPerDebye: Double","type":"var"},{"path":"\/documentation\/mm4\/mm4kjpermolperaj","title":"let MM4KJPerMolPerAJ: Double","type":"var"},{"path":"\/documentation\/mm4\/mm4kjpermolperzj","title":"let MM4KJPerMolPerZJ: Double","type":"var"},{"path":"\/documentation\/mm4\/mm4ygperamu","title":"let MM4YgPerAmu: Double","type":"var"},{"path":"\/documentation\/mm4\/mm4zjperaj","title":"let MM4ZJPerAJ: Double","type":"var"},{"path":"\/documentation\/mm4\/mm4zjperkjpermol","title":"let MM4ZJPerKJPerMol: Double","type":"var"},{"title":"Enumerations","type":"groupMarker"},{"children":[{"title":"Enumeration Cases","type":"groupMarker"},{"path":"\/documentation\/mm4\/mm4atomcode\/alkanecarbon","title":"case alkaneCarbon","type":"case"},{"path":"\/documentation\/mm4\/mm4atomcode\/cyclopentanecarbon","title":"case cyclopentaneCarbon","type":"case"},{"path":"\/documentation\/mm4\/mm4atomcode\/germanium","title":"case germanium","type":"case"},{"path":"\/documentation\/mm4\/mm4atomcode\/hydrogen","title":"case hydrogen","type":"case"},{"path":"\/documentation\/mm4\/mm4atomcode\/phosphorus","title":"case phosphorus","type":"case"},{"path":"\/documentation\/mm4\/mm4atomcode\/silicon","title":"case silicon","type":"case"},{"path":"\/documentation\/mm4\/mm4atomcode\/sulfur","title":"case sulfur","type":"case"},{"title":"Initializers","type":"groupMarker"},{"path":"\/documentation\/mm4\/mm4atomcode\/init(rawvalue:)","title":"init?(rawValue: UInt8)","type":"init"},{"title":"Default Implementations","type":"groupMarker"},{"children":[{"title":"Operators","type":"groupMarker"},{"path":"\/documentation\/mm4\/mm4atomcode\/!=(_:_:)","title":"static func != (Self, Self) -> Bool","type":"op"}],"path":"\/documentation\/mm4\/mm4atomcode\/equatable-implementations","title":"Equatable Implementations","type":"symbol"},{"children":[{"title":"Instance Properties","type":"groupMarker"},{"path":"\/documentation\/mm4\/mm4atomcode\/hashvalue","title":"var hashValue: Int","type":"property"},{"title":"Instance Methods","type":"groupMarker"},{"path":"\/documentation\/mm4\/mm4atomcode\/hash(into:)","title":"func hash(into: inout Hasher)","type":"method"}],"path":"\/documentation\/mm4\/mm4atomcode\/rawrepresentable-implementations","title":"RawRepresentable Implementations","type":"symbol"}],"path":"\/documentation\/mm4\/mm4atomcode","title":"MM4AtomCode","type":"enum"},{"children":[{"title":"Enumeration Cases","type":"groupMarker"},{"path":"\/documentation\/mm4\/mm4centertype\/primary","title":"case primary","type":"case"},{"path":"\/documentation\/mm4\/mm4centertype\/quaternary","title":"case quaternary","type":"case"},{"path":"\/documentation\/mm4\/mm4centertype\/secondary","title":"case secondary","type":"case"},{"path":"\/documentation\/mm4\/mm4centertype\/tertiary","title":"case tertiary","type":"case"},{"title":"Initializers","type":"groupMarker"},{"path":"\/documentation\/mm4\/mm4centertype\/init(rawvalue:)","title":"init?(rawValue: UInt8)","type":"init"},{"title":"Default Implementations","type":"groupMarker"},{"children":[{"title":"Operators","type":"groupMarker"},{"path":"\/documentation\/mm4\/mm4centertype\/!=(_:_:)","title":"static func != (Self, Self) -> Bool","type":"op"}],"path":"\/documentation\/mm4\/mm4centertype\/equatable-implementations","title":"Equatable Implementations","type":"symbol"},{"children":[{"title":"Instance Properties","type":"groupMarker"},{"path":"\/documentation\/mm4\/mm4centertype\/hashvalue","title":"var hashValue: Int","type":"property"},{"title":"Instance Methods","type":"groupMarker"},{"path":"\/documentation\/mm4\/mm4centertype\/hash(into:)","title":"func hash(into: inout Hasher)","type":"method"}],"path":"\/documentation\/mm4\/mm4centertype\/rawrepresentable-implementations","title":"RawRepresentable Implementations","type":"symbol"}],"path":"\/documentation\/mm4\/mm4centertype","title":"MM4CenterType","type":"enum"},{"children":[{"title":"Enumeration Cases","type":"groupMarker"},{"path":"\/documentation\/mm4\/mm4error\/defectiveinertiatensor(_:_:)","title":"case defectiveInertiaTensor((SIMD3<Double>, SIMD3<Double>, SIMD3<Double>), String)","type":"case"},{"path":"\/documentation\/mm4\/mm4error\/missingparameter(_:)","title":"case missingParameter([MM4Address])","type":"case"},{"path":"\/documentation\/mm4\/mm4error\/openvalenceshell(_:_:)","title":"case openValenceShell(MM4Address, [MM4Address])","type":"case"},{"path":"\/documentation\/mm4\/mm4error\/unsupportedcentertype(_:_:)","title":"case unsupportedCenterType(MM4Address, [MM4Address])","type":"case"},{"path":"\/documentation\/mm4\/mm4error\/unsupportedring(_:)","title":"case unsupportedRing([MM4Address])","type":"case"},{"title":"Default Implementations","type":"groupMarker"},{"children":[{"title":"Instance Properties","type":"groupMarker"},{"path":"\/documentation\/mm4\/mm4error\/localizeddescription","title":"var localizedDescription: String","type":"property"}],"path":"\/documentation\/mm4\/mm4error\/error-implementations","title":"Error Implementations","type":"symbol"}],"path":"\/documentation\/mm4\/mm4error","title":"MM4Error","type":"enum"},{"children":[{"title":"Enumeration Cases","type":"groupMarker"},{"path":"\/documentation\/mm4\/mm4integratoroptions\/multipletimestep","title":"case multipleTimeStep","type":"case"},{"path":"\/documentation\/mm4\/mm4integratoroptions\/verlet","title":"case verlet","type":"case"},{"title":"Default Implementations","type":"groupMarker"},{"children":[{"title":"Operators","type":"groupMarker"},{"path":"\/documentation\/mm4\/mm4integratoroptions\/!=(_:_:)","title":"static func != (Self, Self) -> Bool","type":"op"}],"path":"\/documentation\/mm4\/mm4integratoroptions\/equatable-implementations","title":"Equatable Implementations","type":"symbol"}],"path":"\/documentation\/mm4\/mm4integratoroptions","title":"MM4IntegratorOptions","type":"enum"}],"path":"\/documentation\/mm4","title":"MM4","type":"module"}]},"schemaVersion":{"major":0,"minor":1,"patch":1}}